<?xml version="1.0" encoding="UTF-8"?>

<!-- generated on 2026-05-15T21:58:26.509516+05:30 by Eclipse SUMO sumo 1.26.0
<sumoConfiguration xmlns:xsi="http://www.w3.org/2001/XMLSchema-instance" xsi:noNamespaceSchemaLocation="http://sumo.dlr.de/xsd/sumoConfiguration.xsd">

    <input>
        <net-file value="maps/network.net.xml"/>
        <route-files value="maps/routes.rou.xml"/>
    </input>

    <output>
        <tripinfo-output value="tripinfo.xml"/>
    </output>

    <time>
        <begin value="0"/>
        <end value="200"/>
    </time>

    <report>
        <verbose value="true"/>
        <no-step-log value="true"/>
    </report>

    <traci_server>
        <remote-port value="52913"/>
    </traci_server>

</sumoConfiguration>
-->

<tripinfos xmlns:xsi="http://www.w3.org/2001/XMLSchema-instance" xsi:noNamespaceSchemaLocation="http://sumo.dlr.de/xsd/tripinfo_file.xsd">
    <tripinfo id="5" depart="5.00" departLane="1to0_0" departPos="5.10" departSpeed="0.00" departDelay="0.00" arrival="59.00" arrivalLane="0to3_0" arrivalPos="492.80" arrivalSpeed="24.67" duration="54.00" routeLength="989.53" waitingTime="0.00" waitingCount="0" stopTime="0.00" timeLoss="12.68" rerouteNo="0" devices="tripinfo_5" vType="DEFAULT_VEHTYPE" speedFactor="0.83" vaporized=""/>
    <tripinfo id="6" depart="8.00" departLane="1to0_0" departPos="5.10" departSpeed="0.00" departDelay="2.00" arrival="59.00" arrivalLane="0to1_0" arrivalPos="492.80" arrivalSpeed="31.27" duration="51.00" routeLength="985.18" waitingTime="0.00" waitingCount="0" stopTime="0.00" timeLoss="18.43" rerouteNo="0" devices="tripinfo_6" vType="DEFAULT_VEHTYPE" speedFactor="1.05" vaporized=""/>
    <tripinfo id="8" depart="11.00" departLane="1to0_0" departPos="5.10" departSpeed="0.00" departDelay="3.00" arrival="64.00" arrivalLane="0to3_0" arrivalPos="492.80" arrivalSpeed="26.96" duration="53.00" routeLength="989.53" waitingTime="0.00" waitingCount="0" stopTime="0.00" timeLoss="15.95" rerouteNo="0" devices="tripinfo_8" vType="DEFAULT_VEHTYPE" speedFactor="0.94" vaporized=""/>
    <tripinfo id="13" depart="14.00" departLane="1to0_0" departPos="5.10" departSpeed="0.00" departDelay="1.00" arrival="64.00" arrivalLane="0to1_0" arrivalPos="492.80" arrivalSpeed="32.60" duration="50.00" routeLength="985.18" waitingTime="0.00" waitingCount="0" stopTime="0.00" timeLoss="19.55" rerouteNo="0" devices="tripinfo_13" vType="DEFAULT_VEHTYPE" speedFactor="1.12" vaporized=""/>
    <tripinfo id="21" depart="21.00" departLane="1to0_0" departPos="5.10" departSpeed="0.00" departDelay="0.00" arrival="64.00" arrivalLane="0to2_0" arrivalPos="492.80" arrivalSpeed="29.42" duration="43.00" routeLength="994.90" waitingTime="0.00" waitingCount="0" stopTime="0.00" timeLoss="9.38" rerouteNo="0" devices="tripinfo_21" vType="DEFAULT_VEHTYPE" speedFactor="1.01" vaporized=""/>
    <tripinfo id="22" depart="24.00" departLane="1to0_0" departPos="5.10" departSpeed="0.00" departDelay="2.00" arrival="76.00" arrivalLane="0to1_0" arrivalPos="492.80" arrivalSpeed="28.24" duration="52.00" routeLength="985.18" waitingTime="0.00" waitingCount="0" stopTime="0.00" timeLoss="16.77" rerouteNo="0" devices="tripinfo_22" vType="DEFAULT_VEHTYPE" speedFactor="0.97" vaporized=""/>
    <tripinfo id="23" depart="27.00" departLane="1to0_0" departPos="5.10" departSpeed="0.00" departDelay="4.00" arrival="77.00" arrivalLane="0to2_0" arrivalPos="492.80" arrivalSpeed="25.45" duration="50.00" routeLength="994.90" waitingTime="0.00" waitingCount="0" stopTime="0.00" timeLoss="12.41" rerouteNo="0" devices="tripinfo_23" vType="DEFAULT_VEHTYPE" speedFactor="0.89" vaporized=""/>
    <tripinfo id="28" depart="30.00" departLane="1to0_0" departPos="5.10" departSpeed="0.00" departDelay="2.00" arrival="79.00" arrivalLane="0to3_0" arrivalPos="492.80" arrivalSpeed="32.96" duration="49.00" routeLength="989.53" waitingTime="0.00" waitingCount="0" stopTime="0.00" timeLoss="18.82" rerouteNo="0" devices="tripinfo_28" vType="DEFAULT_VEHTYPE" speedFactor="1.13" vaporized=""/>
    <tripinfo id="29" depart="33.00" departLane="1to0_0" departPos="5.10" departSpeed="0.00" departDelay="4.00" arrival="81.00" arrivalLane="0to2_0" arrivalPos="492.80" arrivalSpeed="27.12" duration="48.00" routeLength="994.90" waitingTime="0.00" waitingCount="0" stopTime="0.00" timeLoss="11.92" rerouteNo="0" devices="tripinfo_29" vType="DEFAULT_VEHTYPE" speedFactor="0.93" vaporized=""/>
    <tripinfo id="33" depart="36.00" departLane="1to0_0" departPos="5.10" departSpeed="0.00" departDelay="3.00" arrival="87.00" arrivalLane="0to1_0" arrivalPos="492.80" arrivalSpeed="33.95" duration="51.00" routeLength="985.18" waitingTime="0.00" waitingCount="0" stopTime="0.00" timeLoss="22.04" rerouteNo="0" devices="tripinfo_33" vType="DEFAULT_VEHTYPE" speedFactor="1.17" vaporized=""/>
    <tripinfo id="35" depart="39.00" departLane="1to0_0" departPos="5.10" departSpeed="0.00" departDelay="4.00" arrival="90.00" arrivalLane="0to4_0" arrivalPos="492.80" arrivalSpeed="30.19" duration="51.00" routeLength="994.69" waitingTime="0.00" waitingCount="0" stopTime="0.00" timeLoss="16.26" rerouteNo="0" devices="tripinfo_35" vType="DEFAULT_VEHTYPE" speedFactor="1.02" vaporized=""/>
    <tripinfo id="44" depart="44.00" departLane="1to0_0" departPos="5.10" departSpeed="0.00" departDelay="0.00" arrival="94.00" arrivalLane="0to1_0" arrivalPos="492.80" arrivalSpeed="30.10" duration="50.00" routeLength="985.18" waitingTime="0.00" waitingCount="0" stopTime="0.00" timeLoss="17.65" rerouteNo="0" devices="tripinfo_44" vType="DEFAULT_VEHTYPE" speedFactor="1.04" vaporized=""/>
    <tripinfo id="45" depart="47.00" departLane="1to0_0" departPos="5.10" departSpeed="0.00" departDelay="2.00" arrival="96.00" arrivalLane="0to3_0" arrivalPos="492.80" arrivalSpeed="32.60" duration="49.00" routeLength="989.53" waitingTime="0.00" waitingCount="0" stopTime="0.00" timeLoss="16.80" rerouteNo="0" devices="tripinfo_45" vType="DEFAULT_VEHTYPE" speedFactor="1.09" vaporized=""/>
    <tripinfo id="47" depart="50.00" departLane="1to0_0" departPos="5.10" departSpeed="0.00" departDelay="3.00" arrival="98.00" arrivalLane="0to2_0" arrivalPos="492.80" arrivalSpeed="26.69" duration="48.00" routeLength="994.90" waitingTime="0.00" waitingCount="0" stopTime="0.00" timeLoss="10.45" rerouteNo="0" devices="tripinfo_47" vType="DEFAULT_VEHTYPE" speedFactor="0.90" vaporized=""/>
    <tripinfo id="53" depart="59.00" departLane="1to0_0" departPos="5.10" departSpeed="0.00" departDelay="6.00" arrival="104.00" arrivalLane="0to2_0" arrivalPos="492.80" arrivalSpeed="31.98" duration="45.00" routeLength="994.90" waitingTime="0.00" waitingCount="0" stopTime="0.00" timeLoss="14.42" rerouteNo="0" devices="tripinfo_53" vType="DEFAULT_VEHTYPE" speedFactor="1.10" vaporized=""/>
    <tripinfo id="50" depart="53.00" departLane="1to0_0" departPos="5.10" departSpeed="0.00" departDelay="3.00" arrival="107.00" arrivalLane="0to3_0" arrivalPos="492.80" arrivalSpeed="25.42" duration="54.00" routeLength="989.53" waitingTime="0.00" waitingCount="0" stopTime="0.00" timeLoss="14.33" rerouteNo="0" devices="tripinfo_50" vType="DEFAULT_VEHTYPE" speedFactor="0.85" vaporized=""/>
    <tripinfo id="62" depart="64.00" departLane="1to0_0" departPos="5.10" departSpeed="0.00" departDelay="2.00" arrival="107.00" arrivalLane="0to2_0" arrivalPos="492.80" arrivalSpeed="29.78" duration="43.00" routeLength="994.90" waitingTime="0.00" waitingCount="0" stopTime="0.00" timeLoss="9.47" rerouteNo="0" devices="tripinfo_62" vType="DEFAULT_VEHTYPE" speedFactor="1.02" vaporized=""/>
    <tripinfo id="67" depart="69.00" departLane="1to0_0" departPos="5.10" departSpeed="0.00" departDelay="2.00" arrival="115.00" arrivalLane="0to2_0" arrivalPos="492.80" arrivalSpeed="26.46" duration="46.00" routeLength="994.90" waitingTime="0.00" waitingCount="0" stopTime="0.00" timeLoss="9.27" rerouteNo="0" devices="tripinfo_67" vType="DEFAULT_VEHTYPE" speedFactor="0.91" vaporized=""/>
    <tripinfo id="63" depart="67.00" departLane="1to0_0" departPos="5.10" departSpeed="0.00" departDelay="4.00" arrival="116.00" arrivalLane="0to4_0" arrivalPos="492.80" arrivalSpeed="28.53" duration="49.00" routeLength="994.69" waitingTime="0.00" waitingCount="0" stopTime="0.00" timeLoss="13.65" rerouteNo="0" devices="tripinfo_63" vType="DEFAULT_VEHTYPE" speedFactor="0.99" vaporized=""/>
    <tripinfo id="68" depart="76.00" departLane="1to0_0" departPos="5.10" departSpeed="0.00" departDelay="8.00" arrival="123.00" arrivalLane="0to4_0" arrivalPos="492.80" arrivalSpeed="30.78" duration="47.00" routeLength="994.69" waitingTime="0.00" waitingCount="0" stopTime="0.00" timeLoss="14.32" rerouteNo="0" devices="tripinfo_68" vType="DEFAULT_VEHTYPE" speedFactor="1.04" vaporized=""/>
    <tripinfo id="74" depart="79.00" departLane="1to0_0" departPos="5.10" departSpeed="0.00" departDelay="5.00" arrival="123.00" arrivalLane="0to2_0" arrivalPos="492.80" arrivalSpeed="28.62" duration="44.00" routeLength="994.90" waitingTime="0.00" waitingCount="0" stopTime="0.00" timeLoss="9.12" rerouteNo="0" devices="tripinfo_74" vType="DEFAULT_VEHTYPE" speedFactor="0.96" vaporized=""/>
    <tripinfo id="77" depart="82.00" departLane="1to0_0" departPos="5.10" departSpeed="0.00" departDelay="5.00" arrival="134.00" arrivalLane="0to1_0" arrivalPos="492.80" arrivalSpeed="28.33" duration="52.00" routeLength="985.18" waitingTime="0.00" waitingCount="0" stopTime="0.00" timeLoss="17.36" rerouteNo="0" devices="tripinfo_77" vType="DEFAULT_VEHTYPE" speedFactor="0.98" vaporized=""/>
    <tripinfo id="79" depart="87.00" departLane="1to0_0" departPos="5.10" departSpeed="0.00" departDelay="8.00" arrival="138.00" arrivalLane="0to1_0" arrivalPos="492.80" arrivalSpeed="31.46" duration="51.00" routeLength="985.18" waitingTime="0.00" waitingCount="0" stopTime="0.00" timeLoss="18.78" rerouteNo="0" devices="tripinfo_79" vType="DEFAULT_VEHTYPE" speedFactor="1.09" vaporized=""/>
    <tripinfo id="80" depart="90.00" departLane="1to0_0" departPos="5.10" departSpeed="0.00" departDelay="10.00" arrival="140.00" arrivalLane="0to3_0" arrivalPos="492.80" arrivalSpeed="30.39" duration="50.00" routeLength="989.53" waitingTime="0.00" waitingCount="0" stopTime="0.00" timeLoss="16.96" rerouteNo="0" devices="tripinfo_80" vType="DEFAULT_VEHTYPE" speedFactor="1.03" vaporized=""/>
    <tripinfo id="81" depart="94.00" departLane="1to0_0" departPos="5.10" departSpeed="0.00" departDelay="13.00" arrival="145.00" arrivalLane="0to4_0" arrivalPos="492.80" arrivalSpeed="28.90" duration="51.00" routeLength="994.69" waitingTime="0.00" waitingCount="0" stopTime="0.00" timeLoss="15.94" rerouteNo="0" devices="tripinfo_81" vType="DEFAULT_VEHTYPE" speedFactor="1.00" vaporized=""/>
    <tripinfo id="83" depart="97.00" departLane="1to0_0" departPos="5.10" departSpeed="0.00" departDelay="14.00" arrival="148.00" arrivalLane="0to3_0" arrivalPos="492.80" arrivalSpeed="28.84" duration="51.00" routeLength="989.53" waitingTime="0.00" waitingCount="0" stopTime="0.00" timeLoss="15.17" rerouteNo="0" devices="tripinfo_83" vType="DEFAULT_VEHTYPE" speedFactor="0.97" vaporized=""/>
    <tripinfo id="84" depart="99.00" departLane="1to0_0" departPos="5.10" departSpeed="0.00" departDelay="15.00" arrival="151.00" arrivalLane="0to1_0" arrivalPos="492.80" arrivalSpeed="33.29" duration="52.00" routeLength="985.18" waitingTime="0.00" waitingCount="0" stopTime="0.00" timeLoss="22.34" rerouteNo="0" devices="tripinfo_84" vType="DEFAULT_VEHTYPE" speedFactor="1.15" vaporized=""/>
    <tripinfo id="88" depart="103.00" departLane="1to0_0" departPos="5.10" departSpeed="0.00" departDelay="15.00" arrival="152.00" arrivalLane="0to2_0" arrivalPos="492.80" arrivalSpeed="30.01" duration="49.00" routeLength="994.90" waitingTime="0.00" waitingCount="0" stopTime="0.00" timeLoss="15.57" rerouteNo="0" devices="tripinfo_88" vType="DEFAULT_VEHTYPE" speedFactor="1.01" vaporized=""/>
    <tripinfo id="94" depart="106.00" departLane="1to0_0" departPos="5.10" departSpeed="0.00" departDelay="12.00" arrival="153.00" arrivalLane="0to2_0" arrivalPos="492.80" arrivalSpeed="31.58" duration="47.00" routeLength="994.90" waitingTime="0.00" waitingCount="0" stopTime="0.00" timeLoss="16.49" rerouteNo="0" devices="tripinfo_94" vType="DEFAULT_VEHTYPE" speedFactor="1.09" vaporized=""/>
    <tripinfo id="96" depart="109.00" departLane="1to0_0" departPos="5.10" departSpeed="0.00" departDelay="13.00" arrival="159.00" arrivalLane="0to4_0" arrivalPos="492.80" arrivalSpeed="29.30" duration="50.00" routeLength="994.69" waitingTime="0.00" waitingCount="0" stopTime="0.00" timeLoss="15.24" rerouteNo="0" devices="tripinfo_96" vType="DEFAULT_VEHTYPE" speedFactor="1.01" vaporized=""/>
    <tripinfo id="109" depart="112.00" departLane="1to0_0" departPos="5.10" departSpeed="0.00" departDelay="3.00" arrival="159.00" arrivalLane="0to2_0" arrivalPos="492.80" arrivalSpeed="27.62" duration="47.00" routeLength="994.90" waitingTime="0.00" waitingCount="0" stopTime="0.00" timeLoss="12.24" rerouteNo="0" devices="tripinfo_109" vType="DEFAULT_VEHTYPE" speedFactor="0.96" vaporized=""/>
    <tripinfo id="112" depart="115.00" departLane="1to0_0" departPos="5.10" departSpeed="0.00" departDelay="3.00" arrival="163.00" arrivalLane="0to3_0" arrivalPos="492.80" arrivalSpeed="31.90" duration="48.00" routeLength="989.53" waitingTime="0.00" waitingCount="0" stopTime="0.00" timeLoss="17.17" rerouteNo="0" devices="tripinfo_112" vType="DEFAULT_VEHTYPE" speedFactor="1.10" vaporized=""/>
    <tripinfo id="114" depart="118.00" departLane="1to0_0" departPos="5.10" departSpeed="0.00" departDelay="4.00" arrival="166.00" arrivalLane="0to4_0" arrivalPos="492.80" arrivalSpeed="32.86" duration="48.00" routeLength="994.69" waitingTime="0.00" waitingCount="0" stopTime="0.00" timeLoss="15.74" rerouteNo="0" devices="tripinfo_114" vType="DEFAULT_VEHTYPE" speedFactor="1.10" vaporized=""/>
    <tripinfo id="115" depart="121.00" departLane="1to0_0" departPos="5.10" departSpeed="0.00" departDelay="6.00" arrival="176.00" arrivalLane="0to1_0" arrivalPos="492.80" arrivalSpeed="27.62" duration="55.00" routeLength="985.18" waitingTime="0.00" waitingCount="0" stopTime="0.00" timeLoss="17.53" rerouteNo="0" devices="tripinfo_115" vType="DEFAULT_VEHTYPE" speedFactor="0.92" vaporized=""/>
    <tripinfo id="123" depart="138.00" departLane="1to0_0" departPos="5.10" departSpeed="0.00" departDelay="15.00" arrival="178.00" arrivalLane="0to2_0" arrivalPos="492.80" arrivalSpeed="30.10" duration="40.00" routeLength="994.90" waitingTime="0.00" waitingCount="0" stopTime="0.00" timeLoss="7.56" rerouteNo="0" devices="tripinfo_123" vType="DEFAULT_VEHTYPE" speedFactor="1.02" vaporized=""/>
    <tripinfo id="117" depart="124.00" departLane="1to0_0" departPos="5.10" departSpeed="0.00" departDelay="7.00" arrival="179.00" arrivalLane="0to1_0" arrivalPos="492.80" arrivalSpeed="29.44" duration="55.00" routeLength="985.18" waitingTime="0.00" waitingCount="0" stopTime="0.00" timeLoss="20.22" rerouteNo="0" devices="tripinfo_117" vType="DEFAULT_VEHTYPE" speedFactor="1.00" vaporized=""/>
    <tripinfo id="122" depart="127.00" departLane="1to0_0" departPos="5.10" departSpeed="0.00" departDelay="5.00" arrival="180.00" arrivalLane="0to3_0" arrivalPos="492.80" arrivalSpeed="30.67" duration="53.00" routeLength="989.53" waitingTime="0.00" waitingCount="0" stopTime="0.00" timeLoss="19.49" rerouteNo="0" devices="tripinfo_122" vType="DEFAULT_VEHTYPE" speedFactor="1.03" vaporized=""/>
    <tripinfo id="126" depart="141.00" departLane="1to0_0" departPos="5.10" departSpeed="0.00" departDelay="15.00" arrival="181.00" arrivalLane="0to2_0" arrivalPos="492.80" arrivalSpeed="30.82" duration="40.00" routeLength="994.90" waitingTime="0.00" waitingCount="0" stopTime="0.00" timeLoss="7.36" rerouteNo="0" devices="tripinfo_126" vType="DEFAULT_VEHTYPE" speedFactor="1.03" vaporized=""/>
    <tripinfo id="128" depart="144.00" departLane="1to0_0" departPos="5.10" departSpeed="0.00" departDelay="16.00" arrival="194.00" arrivalLane="0to1_0" arrivalPos="492.80" arrivalSpeed="33.41" duration="50.00" routeLength="985.18" waitingTime="0.00" waitingCount="0" stopTime="0.00" timeLoss="19.50" rerouteNo="0" devices="tripinfo_128" vType="DEFAULT_VEHTYPE" speedFactor="1.12" vaporized=""/>
    <tripinfo id="137" depart="151.00" departLane="1to0_0" departPos="5.10" departSpeed="0.00" departDelay="14.00" arrival="203.00" arrivalLane="0to1_0" arrivalPos="492.80" arrivalSpeed="30.05" duration="52.00" routeLength="985.18" waitingTime="0.00" waitingCount="0" stopTime="0.00" timeLoss="18.11" rerouteNo="0" devices="tripinfo_137" vType="DEFAULT_VEHTYPE" speedFactor="1.02" vaporized=""/>
    <tripinfo id="138" depart="154.00" departLane="1to0_0" departPos="5.10" departSpeed="0.00" departDelay="16.00" arrival="206.00" arrivalLane="0to3_0" arrivalPos="492.80" arrivalSpeed="29.51" duration="52.00" routeLength="989.53" waitingTime="0.00" waitingCount="0" stopTime="0.00" timeLoss="16.85" rerouteNo="0" devices="tripinfo_138" vType="DEFAULT_VEHTYPE" speedFactor="1.00" vaporized=""/>
    <tripinfo id="145" depart="157.00" departLane="1to0_0" departPos="5.10" departSpeed="0.00" departDelay="12.00" arrival="206.00" arrivalLane="0to4_0" arrivalPos="492.80" arrivalSpeed="33.44" duration="49.00" routeLength="994.69" waitingTime="0.00" waitingCount="0" stopTime="0.00" timeLoss="18.46" rerouteNo="0" devices="tripinfo_145" vType="DEFAULT_VEHTYPE" speedFactor="1.14" vaporized=""/>
    <tripinfo id="149" depart="160.00" departLane="1to0_0" departPos="5.10" departSpeed="0.00" departDelay="11.00" arrival="209.00" arrivalLane="0to4_0" arrivalPos="492.80" arrivalSpeed="30.18" duration="49.00" routeLength="994.69" waitingTime="0.00" waitingCount="0" stopTime="0.00" timeLoss="15.21" rerouteNo="0" devices="tripinfo_149" vType="DEFAULT_VEHTYPE" speedFactor="1.04" vaporized=""/>
    <tripinfo id="3" depart="3.00" departLane="4to0_0" departPos="5.10" departSpeed="0.00" departDelay="0.00" arrival="341.00" arrivalLane="0to1_0" arrivalPos="492.80" arrivalSpeed="32.14" duration="338.00" routeLength="980.50" waitingTime="301.00" waitingCount="1" stopTime="0.00" timeLoss="313.30" rerouteNo="0" devices="tripinfo_3" vType="DEFAULT_VEHTYPE" speedFactor="1.08" vaporized=""/>
    <tripinfo id="0" depart="0.00" departLane="3to0_0" departPos="5.10" departSpeed="0.00" departDelay="0.00" arrival="345.00" arrivalLane="0to1_0" arrivalPos="492.80" arrivalSpeed="30.79" duration="345.00" routeLength="980.50" waitingTime="301.00" waitingCount="1" stopTime="0.00" timeLoss="314.17" rerouteNo="0" devices="tripinfo_0" vType="DEFAULT_VEHTYPE" speedFactor="1.06" vaporized=""/>
    <tripinfo id="1" depart="1.00" departLane="2to0_0" departPos="5.10" departSpeed="0.00" departDelay="0.00" arrival="349.00" arrivalLane="0to1_0" arrivalPos="492.80" arrivalSpeed="27.04" duration="348.00" routeLength="980.50" waitingTime="301.00" waitingCount="1" stopTime="0.00" timeLoss="313.14" rerouteNo="0" devices="tripinfo_1" vType="DEFAULT_VEHTYPE" speedFactor="0.94" vaporized=""/>
</tripinfos>
