<?xml version="1.0" encoding="UTF-8"?>

<!-- generated on 2026-05-16T02:37:22.317884+05:30 by Eclipse SUMO sumo 1.26.0
<sumoConfiguration xmlns:xsi="http://www.w3.org/2001/XMLSchema-instance" xsi:noNamespaceSchemaLocation="http://sumo.dlr.de/xsd/sumoConfiguration.xsd">

    <input>
        <net-file value="/Users/lakshay/Desktop/itms 6 sem/Traffic-Light-Management-system-using-RL-and-SUMO/maps/network.net.xml"/>
        <route-files value="/Users/lakshay/Desktop/itms 6 sem/Traffic-Light-Management-system-using-RL-and-SUMO/maps/routes.rou.xml"/>
    </input>

    <output>
        <tripinfo-output value="/Users/lakshay/Desktop/itms 6 sem/Traffic-Light-Management-system-using-RL-and-SUMO/tripinfo.xml"/>
    </output>

    <time>
        <begin value="0"/>
        <end value="200"/>
    </time>

    <report>
        <verbose value="true"/>
        <no-step-log value="true"/>
    </report>

    <traci_server>
        <remote-port value="57556"/>
    </traci_server>

</sumoConfiguration>
-->

<tripinfos xmlns:xsi="http://www.w3.org/2001/XMLSchema-instance" xsi:noNamespaceSchemaLocation="http://sumo.dlr.de/xsd/tripinfo_file.xsd">
    <tripinfo id="1" depart="1.00" departLane="2to0_0" departPos="5.10" departSpeed="0.00" departDelay="0.00" arrival="44.00" arrivalLane="0to1_0" arrivalPos="492.80" arrivalSpeed="27.36" duration="43.00" routeLength="994.90" waitingTime="0.00" waitingCount="0" stopTime="0.00" timeLoss="7.40" rerouteNo="0" devices="tripinfo_1" vType="DEFAULT_VEHTYPE" speedFactor="0.94" vaporized=""/>
    <tripinfo id="4" depart="4.00" departLane="2to0_0" departPos="5.10" departSpeed="0.00" departDelay="0.00" arrival="46.00" arrivalLane="0to1_0" arrivalPos="492.80" arrivalSpeed="30.66" duration="42.00" routeLength="994.90" waitingTime="0.00" waitingCount="0" stopTime="0.00" timeLoss="8.97" rerouteNo="0" devices="tripinfo_4" vType="DEFAULT_VEHTYPE" speedFactor="1.03" vaporized=""/>
    <tripinfo id="3" depart="3.00" departLane="4to0_0" departPos="5.10" departSpeed="0.00" departDelay="0.00" arrival="56.00" arrivalLane="0to1_0" arrivalPos="492.80" arrivalSpeed="32.26" duration="53.00" routeLength="989.53" waitingTime="2.00" waitingCount="1" stopTime="0.00" timeLoss="21.56" rerouteNo="0" devices="tripinfo_3" vType="DEFAULT_VEHTYPE" speedFactor="1.08" vaporized=""/>
    <tripinfo id="10" depart="12.00" departLane="4to0_0" departPos="5.10" departSpeed="0.00" departDelay="2.00" arrival="60.00" arrivalLane="0to3_0" arrivalPos="492.80" arrivalSpeed="31.71" duration="48.00" routeLength="994.90" waitingTime="0.00" waitingCount="0" stopTime="0.00" timeLoss="17.59" rerouteNo="0" devices="tripinfo_10" vType="DEFAULT_VEHTYPE" speedFactor="1.09" vaporized=""/>
    <tripinfo id="9" depart="9.00" departLane="4to0_0" departPos="5.10" departSpeed="0.00" departDelay="0.00" arrival="63.00" arrivalLane="0to1_0" arrivalPos="492.80" arrivalSpeed="25.12" duration="54.00" routeLength="989.53" waitingTime="0.00" waitingCount="0" stopTime="0.00" timeLoss="13.20" rerouteNo="0" devices="tripinfo_9" vType="DEFAULT_VEHTYPE" speedFactor="0.86" vaporized=""/>
    <tripinfo id="14" depart="18.00" departLane="4to0_0" departPos="5.10" departSpeed="0.00" departDelay="4.00" arrival="64.00" arrivalLane="0to3_0" arrivalPos="492.80" arrivalSpeed="29.40" duration="46.00" routeLength="994.90" waitingTime="0.00" waitingCount="0" stopTime="0.00" timeLoss="12.30" rerouteNo="0" devices="tripinfo_14" vType="DEFAULT_VEHTYPE" speedFactor="0.99" vaporized=""/>
    <tripinfo id="12" depart="15.00" departLane="4to0_0" departPos="5.10" departSpeed="0.00" departDelay="3.00" arrival="65.00" arrivalLane="0to2_0" arrivalPos="492.80" arrivalSpeed="30.61" duration="50.00" routeLength="994.69" waitingTime="0.00" waitingCount="0" stopTime="0.00" timeLoss="16.14" rerouteNo="0" devices="tripinfo_12" vType="DEFAULT_VEHTYPE" speedFactor="1.05" vaporized=""/>
    <tripinfo id="15" depart="21.00" departLane="4to0_0" departPos="5.10" departSpeed="0.00" departDelay="6.00" arrival="67.00" arrivalLane="0to3_0" arrivalPos="492.80" arrivalSpeed="27.02" duration="46.00" routeLength="994.90" waitingTime="0.00" waitingCount="0" stopTime="0.00" timeLoss="9.46" rerouteNo="0" devices="tripinfo_15" vType="DEFAULT_VEHTYPE" speedFactor="0.93" vaporized=""/>
    <tripinfo id="11" depart="11.00" departLane="2to0_0" departPos="5.10" departSpeed="0.00" departDelay="0.00" arrival="72.00" arrivalLane="0to1_0" arrivalPos="492.80" arrivalSpeed="30.12" duration="61.00" routeLength="994.90" waitingTime="10.00" waitingCount="1" stopTime="0.00" timeLoss="28.58" rerouteNo="0" devices="tripinfo_11" vType="DEFAULT_VEHTYPE" speedFactor="1.03" vaporized=""/>
    <tripinfo id="17" depart="17.00" departLane="2to0_0" departPos="5.10" departSpeed="0.00" departDelay="0.00" arrival="76.00" arrivalLane="0to3_0" arrivalPos="492.80" arrivalSpeed="28.04" duration="59.00" routeLength="994.69" waitingTime="5.00" waitingCount="1" stopTime="0.00" timeLoss="22.44" rerouteNo="0" devices="tripinfo_17" vType="DEFAULT_VEHTYPE" speedFactor="0.94" vaporized=""/>
    <tripinfo id="25" depart="25.00" departLane="2to0_0" departPos="5.10" departSpeed="0.00" departDelay="0.00" arrival="78.00" arrivalLane="0to1_0" arrivalPos="492.80" arrivalSpeed="25.36" duration="53.00" routeLength="994.90" waitingTime="0.00" waitingCount="0" stopTime="0.00" timeLoss="14.33" rerouteNo="0" devices="tripinfo_25" vType="DEFAULT_VEHTYPE" speedFactor="0.87" vaporized=""/>
    <tripinfo id="26" depart="28.00" departLane="2to0_0" departPos="5.10" departSpeed="0.00" departDelay="2.00" arrival="82.00" arrivalLane="0to4_0" arrivalPos="492.80" arrivalSpeed="26.41" duration="54.00" routeLength="989.53" waitingTime="0.00" waitingCount="0" stopTime="0.00" timeLoss="16.57" rerouteNo="0" devices="tripinfo_26" vType="DEFAULT_VEHTYPE" speedFactor="0.92" vaporized=""/>
    <tripinfo id="34" depart="34.00" departLane="2to0_0" departPos="5.10" departSpeed="0.00" departDelay="0.00" arrival="86.00" arrivalLane="0to2_0" arrivalPos="492.80" arrivalSpeed="29.57" duration="52.00" routeLength="985.18" waitingTime="0.00" waitingCount="0" stopTime="0.00" timeLoss="17.40" rerouteNo="0" devices="tripinfo_34" vType="DEFAULT_VEHTYPE" speedFactor="0.99" vaporized=""/>
    <tripinfo id="5" depart="5.00" departLane="1to0_0" departPos="5.10" departSpeed="0.00" departDelay="0.00" arrival="91.00" arrivalLane="0to3_0" arrivalPos="492.80" arrivalSpeed="24.47" duration="86.00" routeLength="989.53" waitingTime="30.00" waitingCount="1" stopTime="0.00" timeLoss="44.84" rerouteNo="0" devices="tripinfo_5" vType="DEFAULT_VEHTYPE" speedFactor="0.83" vaporized=""/>
    <tripinfo id="6" depart="8.00" departLane="1to0_0" departPos="5.10" departSpeed="0.00" departDelay="2.00" arrival="92.00" arrivalLane="0to1_0" arrivalPos="492.80" arrivalSpeed="30.62" duration="84.00" routeLength="985.18" waitingTime="28.00" waitingCount="1" stopTime="0.00" timeLoss="51.48" rerouteNo="0" devices="tripinfo_6" vType="DEFAULT_VEHTYPE" speedFactor="1.05" vaporized=""/>
    <tripinfo id="8" depart="11.00" departLane="1to0_0" departPos="5.10" departSpeed="0.00" departDelay="3.00" arrival="96.00" arrivalLane="0to3_0" arrivalPos="492.80" arrivalSpeed="27.42" duration="85.00" routeLength="989.53" waitingTime="27.00" waitingCount="1" stopTime="0.00" timeLoss="48.68" rerouteNo="0" devices="tripinfo_8" vType="DEFAULT_VEHTYPE" speedFactor="0.94" vaporized=""/>
    <tripinfo id="13" depart="14.00" departLane="1to0_0" departPos="5.10" departSpeed="0.00" departDelay="1.00" arrival="97.00" arrivalLane="0to1_0" arrivalPos="492.80" arrivalSpeed="32.56" duration="83.00" routeLength="985.18" waitingTime="26.00" waitingCount="1" stopTime="0.00" timeLoss="52.79" rerouteNo="0" devices="tripinfo_13" vType="DEFAULT_VEHTYPE" speedFactor="1.12" vaporized=""/>
    <tripinfo id="21" depart="21.00" departLane="1to0_0" departPos="5.10" departSpeed="0.00" departDelay="0.00" arrival="100.00" arrivalLane="0to2_0" arrivalPos="492.80" arrivalSpeed="29.80" duration="79.00" routeLength="994.90" waitingTime="20.00" waitingCount="1" stopTime="0.00" timeLoss="45.48" rerouteNo="0" devices="tripinfo_21" vType="DEFAULT_VEHTYPE" speedFactor="1.01" vaporized=""/>
    <tripinfo id="39" depart="39.00" departLane="2to0_0" departPos="5.10" departSpeed="0.00" departDelay="0.00" arrival="106.00" arrivalLane="0to1_0" arrivalPos="492.80" arrivalSpeed="26.00" duration="67.00" routeLength="994.90" waitingTime="13.00" waitingCount="1" stopTime="0.00" timeLoss="29.71" rerouteNo="0" devices="tripinfo_39" vType="DEFAULT_VEHTYPE" speedFactor="0.90" vaporized=""/>
    <tripinfo id="42" depart="42.00" departLane="2to0_0" departPos="5.10" departSpeed="0.00" departDelay="0.00" arrival="107.00" arrivalLane="0to1_0" arrivalPos="492.80" arrivalSpeed="28.45" duration="65.00" routeLength="994.90" waitingTime="12.00" waitingCount="1" stopTime="0.00" timeLoss="34.59" rerouteNo="0" devices="tripinfo_42" vType="DEFAULT_VEHTYPE" speedFactor="1.09" vaporized=""/>
    <tripinfo id="52" depart="52.00" departLane="2to0_0" departPos="5.10" departSpeed="0.00" departDelay="0.00" arrival="110.00" arrivalLane="0to3_0" arrivalPos="492.80" arrivalSpeed="29.54" duration="58.00" routeLength="994.69" waitingTime="1.00" waitingCount="1" stopTime="0.00" timeLoss="23.74" rerouteNo="0" devices="tripinfo_52" vType="DEFAULT_VEHTYPE" speedFactor="1.02" vaporized=""/>
    <tripinfo id="54" depart="55.00" departLane="2to0_0" departPos="5.10" departSpeed="0.00" departDelay="1.00" arrival="113.00" arrivalLane="0to4_0" arrivalPos="492.80" arrivalSpeed="29.24" duration="58.00" routeLength="989.53" waitingTime="0.00" waitingCount="0" stopTime="0.00" timeLoss="22.79" rerouteNo="0" devices="tripinfo_54" vType="DEFAULT_VEHTYPE" speedFactor="1.00" vaporized=""/>
    <tripinfo id="58" depart="58.00" departLane="2to0_0" departPos="5.10" departSpeed="0.00" departDelay="0.00" arrival="115.00" arrivalLane="0to3_0" arrivalPos="492.80" arrivalSpeed="29.97" duration="57.00" routeLength="994.69" waitingTime="0.00" waitingCount="0" stopTime="0.00" timeLoss="22.54" rerouteNo="0" devices="tripinfo_58" vType="DEFAULT_VEHTYPE" speedFactor="1.02" vaporized=""/>
    <tripinfo id="65" depart="65.00" departLane="2to0_0" departPos="5.10" departSpeed="0.00" departDelay="0.00" arrival="116.00" arrivalLane="0to1_0" arrivalPos="492.80" arrivalSpeed="25.88" duration="51.00" routeLength="994.90" waitingTime="0.00" waitingCount="0" stopTime="0.00" timeLoss="12.73" rerouteNo="0" devices="tripinfo_65" vType="DEFAULT_VEHTYPE" speedFactor="0.88" vaporized=""/>
    <tripinfo id="70" depart="70.00" departLane="2to0_0" departPos="5.10" departSpeed="0.00" departDelay="0.00" arrival="120.00" arrivalLane="0to3_0" arrivalPos="492.80" arrivalSpeed="30.69" duration="50.00" routeLength="994.69" waitingTime="0.00" waitingCount="0" stopTime="0.00" timeLoss="15.26" rerouteNo="0" devices="tripinfo_70" vType="DEFAULT_VEHTYPE" speedFactor="1.02" vaporized=""/>
    <tripinfo id="71" depart="73.00" departLane="2to0_0" departPos="5.10" departSpeed="0.00" departDelay="2.00" arrival="124.00" arrivalLane="0to4_0" arrivalPos="492.80" arrivalSpeed="28.54" duration="51.00" routeLength="989.53" waitingTime="0.00" waitingCount="0" stopTime="0.00" timeLoss="15.16" rerouteNo="0" devices="tripinfo_71" vType="DEFAULT_VEHTYPE" speedFactor="0.97" vaporized=""/>
    <tripinfo id="72" depart="76.00" departLane="2to0_0" departPos="5.10" departSpeed="0.00" departDelay="4.00" arrival="124.00" arrivalLane="0to1_0" arrivalPos="492.80" arrivalSpeed="28.06" duration="48.00" routeLength="994.90" waitingTime="0.00" waitingCount="0" stopTime="0.00" timeLoss="12.01" rerouteNo="0" devices="tripinfo_72" vType="DEFAULT_VEHTYPE" speedFactor="0.94" vaporized=""/>
    <tripinfo id="76" depart="79.00" departLane="2to0_0" departPos="5.10" departSpeed="0.00" departDelay="3.00" arrival="128.00" arrivalLane="0to3_0" arrivalPos="492.80" arrivalSpeed="29.96" duration="49.00" routeLength="994.69" waitingTime="0.00" waitingCount="0" stopTime="0.00" timeLoss="15.30" rerouteNo="0" devices="tripinfo_76" vType="DEFAULT_VEHTYPE" speedFactor="1.03" vaporized=""/>
    <tripinfo id="78" depart="86.00" departLane="2to0_0" departPos="5.10" departSpeed="0.00" departDelay="8.00" arrival="134.00" arrivalLane="0to3_0" arrivalPos="492.80" arrivalSpeed="29.36" duration="48.00" routeLength="994.69" waitingTime="0.00" waitingCount="0" stopTime="0.00" timeLoss="13.94" rerouteNo="0" devices="tripinfo_78" vType="DEFAULT_VEHTYPE" speedFactor="1.01" vaporized=""/>
    <tripinfo id="18" depart="24.00" departLane="4to0_0" departPos="5.10" departSpeed="0.00" departDelay="6.00" arrival="139.00" arrivalLane="0to3_0" arrivalPos="492.80" arrivalSpeed="27.85" duration="115.00" routeLength="994.90" waitingTime="64.00" waitingCount="1" stopTime="0.00" timeLoss="79.04" rerouteNo="0" devices="tripinfo_18" vType="DEFAULT_VEHTYPE" speedFactor="0.94" vaporized=""/>
    <tripinfo id="19" depart="27.00" departLane="4to0_0" departPos="5.10" departSpeed="0.00" departDelay="8.00" arrival="140.00" arrivalLane="0to3_0" arrivalPos="492.80" arrivalSpeed="29.88" duration="113.00" routeLength="994.90" waitingTime="60.00" waitingCount="1" stopTime="0.00" timeLoss="84.26" rerouteNo="0" devices="tripinfo_19" vType="DEFAULT_VEHTYPE" speedFactor="1.16" vaporized=""/>
    <tripinfo id="30" depart="30.00" departLane="4to0_0" departPos="5.10" departSpeed="0.00" departDelay="0.00" arrival="142.00" arrivalLane="0to3_0" arrivalPos="492.80" arrivalSpeed="32.09" duration="112.00" routeLength="994.90" waitingTime="58.00" waitingCount="1" stopTime="0.00" timeLoss="83.22" rerouteNo="0" devices="tripinfo_30" vType="DEFAULT_VEHTYPE" speedFactor="1.18" vaporized=""/>
    <tripinfo id="32" depart="33.00" departLane="4to0_0" departPos="5.10" departSpeed="0.00" departDelay="1.00" arrival="148.00" arrivalLane="0to4_0" arrivalPos="492.80" arrivalSpeed="29.83" duration="115.00" routeLength="985.18" waitingTime="56.00" waitingCount="1" stopTime="0.00" timeLoss="80.51" rerouteNo="0" devices="tripinfo_32" vType="DEFAULT_VEHTYPE" speedFactor="1.01" vaporized=""/>
    <tripinfo id="36" depart="36.00" departLane="4to0_0" departPos="5.10" departSpeed="0.00" departDelay="0.00" arrival="149.00" arrivalLane="0to2_0" arrivalPos="492.80" arrivalSpeed="28.69" duration="113.00" routeLength="994.69" waitingTime="54.00" waitingCount="1" stopTime="0.00" timeLoss="77.42" rerouteNo="0" devices="tripinfo_36" vType="DEFAULT_VEHTYPE" speedFactor="0.97" vaporized=""/>
    <tripinfo id="38" depart="39.00" departLane="4to0_0" departPos="5.10" departSpeed="0.00" departDelay="1.00" arrival="151.00" arrivalLane="0to2_0" arrivalPos="492.80" arrivalSpeed="31.81" duration="112.00" routeLength="994.69" waitingTime="52.00" waitingCount="1" stopTime="0.00" timeLoss="79.81" rerouteNo="0" devices="tripinfo_38" vType="DEFAULT_VEHTYPE" speedFactor="1.10" vaporized=""/>
    <tripinfo id="43" depart="43.00" departLane="4to0_0" departPos="5.10" departSpeed="0.00" departDelay="0.00" arrival="151.00" arrivalLane="0to3_0" arrivalPos="492.80" arrivalSpeed="30.25" duration="108.00" routeLength="994.90" waitingTime="49.00" waitingCount="1" stopTime="0.00" timeLoss="75.67" rerouteNo="0" devices="tripinfo_43" vType="DEFAULT_VEHTYPE" speedFactor="1.04" vaporized=""/>
    <tripinfo id="46" depart="46.00" departLane="4to0_0" departPos="5.10" departSpeed="0.00" departDelay="0.00" arrival="155.00" arrivalLane="0to2_0" arrivalPos="492.80" arrivalSpeed="28.94" duration="109.00" routeLength="994.69" waitingTime="47.00" waitingCount="1" stopTime="0.00" timeLoss="74.57" rerouteNo="0" devices="tripinfo_46" vType="DEFAULT_VEHTYPE" speedFactor="1.00" vaporized=""/>
    <tripinfo id="48" depart="49.00" departLane="4to0_0" departPos="5.10" departSpeed="0.00" departDelay="1.00" arrival="157.00" arrivalLane="0to3_0" arrivalPos="492.80" arrivalSpeed="25.91" duration="108.00" routeLength="994.90" waitingTime="45.00" waitingCount="1" stopTime="0.00" timeLoss="69.86" rerouteNo="0" devices="tripinfo_48" vType="DEFAULT_VEHTYPE" speedFactor="0.88" vaporized=""/>
    <tripinfo id="49" depart="52.00" departLane="4to0_0" departPos="5.10" departSpeed="0.00" departDelay="3.00" arrival="165.00" arrivalLane="0to4_0" arrivalPos="492.80" arrivalSpeed="24.75" duration="113.00" routeLength="985.18" waitingTime="43.00" waitingCount="1" stopTime="0.00" timeLoss="72.38" rerouteNo="0" devices="tripinfo_49" vType="DEFAULT_VEHTYPE" speedFactor="0.85" vaporized=""/>
    <tripinfo id="55" depart="55.00" departLane="4to0_0" departPos="5.10" departSpeed="0.00" departDelay="0.00" arrival="165.00" arrivalLane="0to2_0" arrivalPos="492.80" arrivalSpeed="29.66" duration="110.00" routeLength="994.69" waitingTime="41.00" waitingCount="1" stopTime="0.00" timeLoss="75.02" rerouteNo="0" devices="tripinfo_55" vType="DEFAULT_VEHTYPE" speedFactor="1.00" vaporized=""/>
    <tripinfo id="86" depart="89.00" departLane="2to0_0" departPos="5.10" departSpeed="0.00" departDelay="3.00" arrival="169.00" arrivalLane="0to4_0" arrivalPos="492.80" arrivalSpeed="29.35" duration="80.00" routeLength="989.53" waitingTime="27.00" waitingCount="1" stopTime="0.00" timeLoss="45.83" rerouteNo="0" devices="tripinfo_86" vType="DEFAULT_VEHTYPE" speedFactor="1.00" vaporized=""/>
    <tripinfo id="89" depart="92.00" departLane="2to0_0" departPos="5.10" departSpeed="0.00" departDelay="3.00" arrival="172.00" arrivalLane="0to2_0" arrivalPos="492.80" arrivalSpeed="30.46" duration="80.00" routeLength="985.18" waitingTime="26.00" waitingCount="1" stopTime="0.00" timeLoss="47.05" rerouteNo="0" devices="tripinfo_89" vType="DEFAULT_VEHTYPE" speedFactor="1.02" vaporized=""/>
    <tripinfo id="92" depart="95.00" departLane="2to0_0" departPos="5.10" departSpeed="0.00" departDelay="3.00" arrival="181.00" arrivalLane="0to2_0" arrivalPos="492.80" arrivalSpeed="24.94" duration="86.00" routeLength="985.18" waitingTime="22.00" waitingCount="1" stopTime="0.00" timeLoss="44.50" rerouteNo="0" devices="tripinfo_92" vType="DEFAULT_VEHTYPE" speedFactor="0.83" vaporized=""/>
    <tripinfo id="95" depart="100.00" departLane="2to0_0" departPos="5.10" departSpeed="0.00" departDelay="5.00" arrival="182.00" arrivalLane="0to2_0" arrivalPos="492.80" arrivalSpeed="28.70" duration="82.00" routeLength="985.18" waitingTime="19.00" waitingCount="1" stopTime="0.00" timeLoss="49.26" rerouteNo="0" devices="tripinfo_95" vType="DEFAULT_VEHTYPE" speedFactor="1.06" vaporized=""/>
    <tripinfo id="0" depart="0.00" departLane="3to0_0" departPos="5.10" departSpeed="0.00" departDelay="0.00" arrival="185.00" arrivalLane="0to1_0" arrivalPos="492.80" arrivalSpeed="30.69" duration="185.00" routeLength="994.69" waitingTime="132.00" waitingCount="1" stopTime="0.00" timeLoss="152.00" rerouteNo="0" devices="tripinfo_0" vType="DEFAULT_VEHTYPE" speedFactor="1.06" vaporized=""/>
    <tripinfo id="97" depart="103.00" departLane="2to0_0" departPos="5.10" departSpeed="0.00" departDelay="6.00" arrival="185.00" arrivalLane="0to4_0" arrivalPos="492.80" arrivalSpeed="26.06" duration="82.00" routeLength="989.53" waitingTime="15.00" waitingCount="1" stopTime="0.00" timeLoss="43.27" rerouteNo="0" devices="tripinfo_97" vType="DEFAULT_VEHTYPE" speedFactor="0.91" vaporized=""/>
    <tripinfo id="57" depart="58.00" departLane="4to0_0" departPos="5.10" departSpeed="0.00" departDelay="1.00" arrival="187.00" arrivalLane="0to4_0" arrivalPos="492.80" arrivalSpeed="33.34" duration="129.00" routeLength="985.18" waitingTime="56.00" waitingCount="2" stopTime="0.00" timeLoss="98.42" rerouteNo="0" devices="tripinfo_57" vType="DEFAULT_VEHTYPE" speedFactor="1.14" vaporized=""/>
    <tripinfo id="2" depart="3.00" departLane="3to0_0" departPos="5.10" departSpeed="0.00" departDelay="1.00" arrival="189.00" arrivalLane="0to3_0" arrivalPos="492.80" arrivalSpeed="30.07" duration="186.00" routeLength="985.18" waitingTime="130.00" waitingCount="1" stopTime="0.00" timeLoss="151.22" rerouteNo="0" devices="tripinfo_2" vType="DEFAULT_VEHTYPE" speedFactor="1.01" vaporized=""/>
    <tripinfo id="7" depart="7.00" departLane="3to0_0" departPos="5.10" departSpeed="0.00" departDelay="0.00" arrival="193.00" arrivalLane="0to3_0" arrivalPos="492.80" arrivalSpeed="25.46" duration="186.00" routeLength="985.18" waitingTime="126.00" waitingCount="1" stopTime="0.00" timeLoss="148.22" rerouteNo="0" devices="tripinfo_7" vType="DEFAULT_VEHTYPE" speedFactor="0.89" vaporized=""/>
    <tripinfo id="16" depart="16.00" departLane="3to0_0" departPos="5.10" departSpeed="0.00" departDelay="0.00" arrival="195.00" arrivalLane="0to4_0" arrivalPos="492.80" arrivalSpeed="25.80" duration="179.00" routeLength="994.90" waitingTime="119.00" waitingCount="1" stopTime="0.00" timeLoss="140.36" rerouteNo="0" devices="tripinfo_16" vType="DEFAULT_VEHTYPE" speedFactor="0.88" vaporized=""/>
    <tripinfo id="20" depart="20.00" departLane="3to0_0" departPos="5.10" departSpeed="0.00" departDelay="0.00" arrival="196.00" arrivalLane="0to1_0" arrivalPos="492.80" arrivalSpeed="29.27" duration="176.00" routeLength="994.69" waitingTime="117.00" waitingCount="1" stopTime="0.00" timeLoss="141.25" rerouteNo="0" devices="tripinfo_20" vType="DEFAULT_VEHTYPE" speedFactor="1.02" vaporized=""/>
    <tripinfo id="24" depart="24.00" departLane="3to0_0" departPos="5.10" departSpeed="0.00" departDelay="0.00" arrival="202.00" arrivalLane="0to2_0" arrivalPos="492.80" arrivalSpeed="23.62" duration="178.00" routeLength="989.53" waitingTime="114.00" waitingCount="1" stopTime="0.00" timeLoss="136.75" rerouteNo="0" devices="tripinfo_24" vType="DEFAULT_VEHTYPE" speedFactor="0.83" vaporized=""/>
    <tripinfo id="27" depart="27.00" departLane="3to0_0" departPos="5.10" departSpeed="0.00" departDelay="0.00" arrival="204.00" arrivalLane="0to3_0" arrivalPos="492.80" arrivalSpeed="27.38" duration="177.00" routeLength="985.18" waitingTime="111.00" waitingCount="1" stopTime="0.00" timeLoss="140.91" rerouteNo="0" devices="tripinfo_27" vType="DEFAULT_VEHTYPE" speedFactor="0.95" vaporized=""/>
    <tripinfo id="31" depart="31.00" departLane="3to0_0" departPos="5.10" departSpeed="0.00" departDelay="0.00" arrival="206.00" arrivalLane="0to3_0" arrivalPos="492.80" arrivalSpeed="33.14" duration="175.00" routeLength="985.18" waitingTime="111.00" waitingCount="1" stopTime="0.00" timeLoss="144.54" rerouteNo="0" devices="tripinfo_31" vType="DEFAULT_VEHTYPE" speedFactor="1.15" vaporized=""/>
    <tripinfo id="37" depart="37.00" departLane="3to0_0" departPos="5.10" departSpeed="0.00" departDelay="0.00" arrival="207.00" arrivalLane="0to2_0" arrivalPos="492.80" arrivalSpeed="35.01" duration="170.00" routeLength="989.53" waitingTime="105.00" waitingCount="1" stopTime="0.00" timeLoss="140.77" rerouteNo="0" devices="tripinfo_37" vType="DEFAULT_VEHTYPE" speedFactor="1.18" vaporized=""/>
    <tripinfo id="40" depart="40.00" departLane="3to0_0" departPos="5.10" departSpeed="0.00" departDelay="0.00" arrival="210.00" arrivalLane="0to2_0" arrivalPos="492.80" arrivalSpeed="30.83" duration="170.00" routeLength="989.53" waitingTime="104.00" waitingCount="1" stopTime="0.00" timeLoss="136.83" rerouteNo="0" devices="tripinfo_40" vType="DEFAULT_VEHTYPE" speedFactor="1.03" vaporized=""/>
    <tripinfo id="41" depart="43.00" departLane="3to0_0" departPos="5.10" departSpeed="0.00" departDelay="2.00" arrival="212.00" arrivalLane="0to4_0" arrivalPos="492.80" arrivalSpeed="27.73" duration="169.00" routeLength="994.90" waitingTime="101.00" waitingCount="1" stopTime="0.00" timeLoss="134.16" rerouteNo="0" devices="tripinfo_41" vType="DEFAULT_VEHTYPE" speedFactor="0.96" vaporized=""/>
    <tripinfo id="22" depart="24.00" departLane="1to0_0" departPos="5.10" departSpeed="0.00" departDelay="2.00" arrival="219.00" arrivalLane="0to1_0" arrivalPos="492.80" arrivalSpeed="28.39" duration="195.00" routeLength="985.18" waitingTime="128.00" waitingCount="2" stopTime="0.00" timeLoss="160.06" rerouteNo="0" devices="tripinfo_22" vType="DEFAULT_VEHTYPE" speedFactor="0.97" vaporized=""/>
    <tripinfo id="23" depart="27.00" departLane="1to0_0" departPos="5.10" departSpeed="0.00" departDelay="4.00" arrival="221.00" arrivalLane="0to2_0" arrivalPos="492.80" arrivalSpeed="25.45" duration="194.00" routeLength="994.90" waitingTime="128.00" waitingCount="2" stopTime="0.00" timeLoss="156.27" rerouteNo="0" devices="tripinfo_23" vType="DEFAULT_VEHTYPE" speedFactor="0.89" vaporized=""/>
    <tripinfo id="28" depart="30.00" departLane="1to0_0" departPos="5.10" departSpeed="0.00" departDelay="2.00" arrival="221.00" arrivalLane="0to3_0" arrivalPos="492.80" arrivalSpeed="33.08" duration="191.00" routeLength="989.53" waitingTime="125.00" waitingCount="2" stopTime="0.00" timeLoss="160.68" rerouteNo="0" devices="tripinfo_28" vType="DEFAULT_VEHTYPE" speedFactor="1.13" vaporized=""/>
    <tripinfo id="29" depart="33.00" departLane="1to0_0" departPos="5.10" departSpeed="0.00" departDelay="4.00" arrival="224.00" arrivalLane="0to2_0" arrivalPos="492.80" arrivalSpeed="27.46" duration="191.00" routeLength="994.90" waitingTime="122.00" waitingCount="2" stopTime="0.00" timeLoss="154.98" rerouteNo="0" devices="tripinfo_29" vType="DEFAULT_VEHTYPE" speedFactor="0.93" vaporized=""/>
    <tripinfo id="33" depart="36.00" departLane="1to0_0" departPos="5.10" departSpeed="0.00" departDelay="3.00" arrival="228.00" arrivalLane="0to1_0" arrivalPos="492.80" arrivalSpeed="34.09" duration="192.00" routeLength="985.18" waitingTime="120.00" waitingCount="2" stopTime="0.00" timeLoss="161.65" rerouteNo="0" devices="tripinfo_33" vType="DEFAULT_VEHTYPE" speedFactor="1.17" vaporized=""/>
    <tripinfo id="35" depart="39.00" departLane="1to0_0" departPos="5.10" departSpeed="0.00" departDelay="4.00" arrival="232.00" arrivalLane="0to4_0" arrivalPos="492.80" arrivalSpeed="30.23" duration="193.00" routeLength="994.69" waitingTime="118.00" waitingCount="2" stopTime="0.00" timeLoss="159.23" rerouteNo="0" devices="tripinfo_35" vType="DEFAULT_VEHTYPE" speedFactor="1.02" vaporized=""/>
    <tripinfo id="102" depart="106.00" departLane="2to0_0" departPos="5.10" departSpeed="0.00" departDelay="4.00" arrival="235.00" arrivalLane="0to1_0" arrivalPos="492.80" arrivalSpeed="28.79" duration="129.00" routeLength="994.90" waitingTime="59.00" waitingCount="3" stopTime="0.00" timeLoss="94.73" rerouteNo="0" devices="tripinfo_102" vType="DEFAULT_VEHTYPE" speedFactor="0.97" vaporized=""/>
    <tripinfo id="103" depart="109.00" departLane="2to0_0" departPos="5.10" departSpeed="0.00" departDelay="6.00" arrival="237.00" arrivalLane="0to1_0" arrivalPos="492.80" arrivalSpeed="28.47" duration="128.00" routeLength="994.90" waitingTime="56.00" waitingCount="2" stopTime="0.00" timeLoss="92.98" rerouteNo="0" devices="tripinfo_103" vType="DEFAULT_VEHTYPE" speedFactor="0.95" vaporized=""/>
    <tripinfo id="104" depart="112.00" departLane="2to0_0" departPos="5.10" departSpeed="0.00" departDelay="8.00" arrival="241.00" arrivalLane="0to4_0" arrivalPos="492.80" arrivalSpeed="26.18" duration="129.00" routeLength="989.53" waitingTime="53.00" waitingCount="2" stopTime="0.00" timeLoss="90.27" rerouteNo="0" devices="tripinfo_104" vType="DEFAULT_VEHTYPE" speedFactor="0.89" vaporized=""/>
    <tripinfo id="105" depart="115.00" departLane="2to0_0" departPos="5.10" departSpeed="0.00" departDelay="10.00" arrival="243.00" arrivalLane="0to4_0" arrivalPos="492.80" arrivalSpeed="30.55" duration="128.00" routeLength="989.53" waitingTime="51.00" waitingCount="2" stopTime="0.00" timeLoss="95.18" rerouteNo="0" devices="tripinfo_105" vType="DEFAULT_VEHTYPE" speedFactor="1.07" vaporized=""/>
    <tripinfo id="106" depart="118.00" departLane="2to0_0" departPos="5.10" departSpeed="0.00" departDelay="12.00" arrival="246.00" arrivalLane="0to2_0" arrivalPos="492.80" arrivalSpeed="29.31" duration="128.00" routeLength="985.18" waitingTime="48.00" waitingCount="2" stopTime="0.00" timeLoss="94.89" rerouteNo="0" devices="tripinfo_106" vType="DEFAULT_VEHTYPE" speedFactor="1.01" vaporized=""/>
    <tripinfo id="44" depart="46.00" departLane="1to0_0" departPos="5.10" departSpeed="0.00" departDelay="2.00" arrival="250.00" arrivalLane="0to1_0" arrivalPos="492.80" arrivalSpeed="30.34" duration="204.00" routeLength="985.18" waitingTime="126.00" waitingCount="3" stopTime="0.00" timeLoss="170.48" rerouteNo="0" devices="tripinfo_44" vType="DEFAULT_VEHTYPE" speedFactor="1.04" vaporized=""/>
    <tripinfo id="45" depart="49.00" departLane="1to0_0" departPos="5.10" departSpeed="0.00" departDelay="4.00" arrival="251.00" arrivalLane="0to3_0" arrivalPos="492.80" arrivalSpeed="31.74" duration="202.00" routeLength="989.53" waitingTime="122.00" waitingCount="3" stopTime="0.00" timeLoss="170.35" rerouteNo="0" devices="tripinfo_45" vType="DEFAULT_VEHTYPE" speedFactor="1.09" vaporized=""/>
    <tripinfo id="47" depart="56.00" departLane="1to0_0" departPos="5.10" departSpeed="0.00" departDelay="9.00" arrival="254.00" arrivalLane="0to2_0" arrivalPos="492.80" arrivalSpeed="26.65" duration="198.00" routeLength="994.90" waitingTime="116.00" waitingCount="2" stopTime="0.00" timeLoss="160.58" rerouteNo="0" devices="tripinfo_47" vType="DEFAULT_VEHTYPE" speedFactor="0.90" vaporized=""/>
    <tripinfo id="53" depart="66.00" departLane="1to0_0" departPos="5.10" departSpeed="0.00" departDelay="13.00" arrival="258.00" arrivalLane="0to2_0" arrivalPos="492.80" arrivalSpeed="32.35" duration="192.00" routeLength="994.90" waitingTime="114.00" waitingCount="2" stopTime="0.00" timeLoss="161.00" rerouteNo="0" devices="tripinfo_53" vType="DEFAULT_VEHTYPE" speedFactor="1.10" vaporized=""/>
    <tripinfo id="50" depart="63.00" departLane="1to0_0" departPos="5.10" departSpeed="0.00" departDelay="13.00" arrival="259.00" arrivalLane="0to3_0" arrivalPos="492.80" arrivalSpeed="24.72" duration="196.00" routeLength="989.53" waitingTime="116.00" waitingCount="2" stopTime="0.00" timeLoss="156.11" rerouteNo="0" devices="tripinfo_50" vType="DEFAULT_VEHTYPE" speedFactor="0.85" vaporized=""/>