<?xml version="1.0" encoding="UTF-8"?>

<!-- generated on 2026-05-16T02:37:20.666997+05:30 by Eclipse SUMO sumo 1.26.0
<sumoConfiguration xmlns:xsi="http://www.w3.org/2001/XMLSchema-instance" xsi:noNamespaceSchemaLocation="http://sumo.dlr.de/xsd/sumoConfiguration.xsd">

    <input>
        <net-file value="/Users/lakshay/Desktop/itms 6 sem/Traffic-Light-Management-system-using-RL-and-SUMO/maps/network.net.xml"/>
        <route-files value="/Users/lakshay/Desktop/itms 6 sem/Traffic-Light-Management-system-using-RL-and-SUMO/maps/routes.rou.xml"/>
    </input>

    <output>
        <tripinfo-output value="/Users/lakshay/Desktop/itms 6 sem/Traffic-Light-Management-system-using-RL-and-SUMO/maps/tripinfo.xml"/>
    </output>

    <time>
        <begin value="0"/>
        <end value="200"/>
    </time>

    <report>
        <verbose value="true"/>
        <no-step-log value="true"/>
    </report>

    <traci_server>
        <remote-port value="57553"/>
    </traci_server>

</sumoConfiguration>
-->

<tripinfos xmlns:xsi="http://www.w3.org/2001/XMLSchema-instance" xsi:noNamespaceSchemaLocation="http://sumo.dlr.de/xsd/tripinfo_file.xsd">
</tripinfos>
